# vtk DataFile Version 5.1
vtk output
ASCII
DATASET POLYDATA
POINTS 1000 float
122.338 14.3587 35.9559 122.338 14.3587 37.067 122.338 14.3587 38.1781 
122.338 14.3587 39.2892 122.338 14.3587 40.4004 122.338 14.3587 41.5115 
122.338 14.3587 42.6226 122.338 14.3587 43.7337 122.338 14.3587 44.8448 
122.338 14.3587 45.9559 123.449 14.3587 35.9559 123.449 14.3587 37.067 
123.449 14.3587 38.1781 123.449 14.3587 39.2892 123.449 14.3587 40.4004 
123.449 14.3587 41.5115 123.449 14.3587 42.6226 123.449 14.3587 43.7337 
123.449 14.3587 44.8448 123.449 14.3587 45.9559 124.56 14.3587 35.9559 
124.56 14.3587 37.067 124.56 14.3587 38.1781 124.56 14.3587 39.2892 
124.56 14.3587 40.4004 124.56 14.3587 41.5115 124.56 14.3587 42.6226 
124.56 14.3587 43.7337 124.56 14.3587 44.8448 124.56 14.3587 45.9559 
125.671 14.3587 35.9559 125.671 14.3587 37.067 125.671 14.3587 38.1781 
125.671 14.3587 39.2892 125.671 14.3587 40.4004 125.671 14.3587 41.5115 
125.671 14.3587 42.6226 125.671 14.3587 43.7337 125.671 14.3587 44.8448 
125.671 14.3587 45.9559 126.782 14.3587 35.9559 126.782 14.3587 37.067 
126.782 14.3587 38.1781 126.782 14.3587 39.2892 126.782 14.3587 40.4004 
126.782 14.3587 41.5115 126.782 14.3587 42.6226 126.782 14.3587 43.7337 
126.782 14.3587 44.8448 126.782 14.3587 45.9559 127.893 14.3587 35.9559 
127.893 14.3587 37.067 127.893 14.3587 38.1781 127.893 14.3587 39.2892 
127.893 14.3587 40.4004 127.893 14.3587 41.5115 127.893 14.3587 42.6226 
127.893 14.3587 43.7337 127.893 14.3587 44.8448 127.893 14.3587 45.9559 
129.004 14.3587 35.9559 129.004 14.3587 37.067 129.004 14.3587 38.1781 
129.004 14.3587 39.2892 129.004 14.3587 40.4004 129.004 14.3587 41.5115 
129.004 14.3587 42.6226 129.004 14.3587 43.7337 129.004 14.3587 44.8448 
129.004 14.3587 45.9559 130.116 14.3587 35.9559 130.116 14.3587 37.067 
130.116 14.3587 38.1781 130.116 14.3587 39.2892 130.116 14.3587 40.4004 
130.116 14.3587 41.5115 130.116 14.3587 42.6226 130.116 14.3587 43.7337 
130.116 14.3587 44.8448 130.116 14.3587 45.9559 131.227 14.3587 35.9559 
131.227 14.3587 37.067 131.227 14.3587 38.1781 131.227 14.3587 39.2892 
131.227 14.3587 40.4004 131.227 14.3587 41.5115 131.227 14.3587 42.6226 
131.227 14.3587 43.7337 131.227 14.3587 44.8448 131.227 14.3587 45.9559 
132.338 14.3587 35.9559 132.338 14.3587 37.067 132.338 14.3587 38.1781 
132.338 14.3587 39.2892 132.338 14.3587 40.4004 132.338 14.3587 41.5115 
132.338 14.3587 42.6226 132.338 14.3587 43.7337 132.338 14.3587 44.8448 
132.338 14.3587 45.9559 122.338 15.4698 35.9559 122.338 15.4698 37.067 
122.338 15.4698 38.1781 122.338 15.4698 39.2892 122.338 15.4698 40.4004 
122.338 15.4698 41.5115 122.338 15.4698 42.6226 122.338 15.4698 43.7337 
122.338 15.4698 44.8448 122.338 15.4698 45.9559 123.449 15.4698 35.9559 
123.449 15.4698 37.067 123.449 15.4698 38.1781 123.449 15.4698 39.2892 
123.449 15.4698 40.4004 123.449 15.4698 41.5115 123.449 15.4698 42.6226 
123.449 15.4698 43.7337 123.449 15.4698 44.8448 123.449 15.4698 45.9559 
124.56 15.4698 35.9559 124.56 15.4698 37.067 124.56 15.4698 38.1781 
124.56 15.4698 39.2892 124.56 15.4698 40.4004 124.56 15.4698 41.5115 
124.56 15.4698 42.6226 124.56 15.4698 43.7337 124.56 15.4698 44.8448 
124.56 15.4698 45.9559 125.671 15.4698 35.9559 125.671 15.4698 37.067 
125.671 15.4698 38.1781 125.671 15.4698 39.2892 125.671 15.4698 40.4004 
125.671 15.4698 41.5115 125.671 15.4698 42.6226 125.671 15.4698 43.7337 
125.671 15.4698 44.8448 125.671 15.4698 45.9559 126.782 15.4698 35.9559 
126.782 15.4698 37.067 126.782 15.4698 38.1781 126.782 15.4698 39.2892 
126.782 15.4698 40.4004 126.782 15.4698 41.5115 126.782 15.4698 42.6226 
126.782 15.4698 43.7337 126.782 15.4698 44.8448 126.782 15.4698 45.9559 
127.893 15.4698 35.9559 127.893 15.4698 37.067 127.893 15.4698 38.1781 
127.893 15.4698 39.2892 127.893 15.4698 40.4004 127.893 15.4698 41.5115 
127.893 15.4698 42.6226 127.893 15.4698 43.7337 127.893 15.4698 44.8448 
127.893 15.4698 45.9559 129.004 15.4698 35.9559 129.004 15.4698 37.067 
129.004 15.4698 38.1781 129.004 15.4698 39.2892 129.004 15.4698 40.4004 
129.004 15.4698 41.5115 129.004 15.4698 42.6226 129.004 15.4698 43.7337 
129.004 15.4698 44.8448 129.004 15.4698 45.9559 130.116 15.4698 35.9559 
130.116 15.4698 37.067 130.116 15.4698 38.1781 130.116 15.4698 39.2892 
130.116 15.4698 40.4004 130.116 15.4698 41.5115 130.116 15.4698 42.6226 
130.116 15.4698 43.7337 130.116 15.4698 44.8448 130.116 15.4698 45.9559 
131.227 15.4698 35.9559 131.227 15.4698 37.067 131.227 15.4698 38.1781 
131.227 15.4698 39.2892 131.227 15.4698 40.4004 131.227 15.4698 41.5115 
131.227 15.4698 42.6226 131.227 15.4698 43.7337 131.227 15.4698 44.8448 
131.227 15.4698 45.9559 132.338 15.4698 35.9559 132.338 15.4698 37.067 
132.338 15.4698 38.1781 132.338 15.4698 39.2892 132.338 15.4698 40.4004 
132.338 15.4698 41.5115 132.338 15.4698 42.6226 132.338 15.4698 43.7337 
132.338 15.4698 44.8448 132.338 15.4698 45.9559 122.338 16.581 35.9559 
122.338 16.581 37.067 122.338 16.581 38.1781 122.338 16.581 39.2892 
122.338 16.581 40.4004 122.338 16.581 41.5115 122.338 16.581 42.6226 
122.338 16.581 43.7337 122.338 16.581 44.8448 122.338 16.581 45.9559 
123.449 16.581 35.9559 123.449 16.581 37.067 123.449 16.581 38.1781 
123.449 16.581 39.2892 123.449 16.581 40.4004 123.449 16.581 41.5115 
123.449 16.581 42.6226 123.449 16.581 43.7337 123.449 16.581 44.8448 
123.449 16.581 45.9559 124.56 16.581 35.9559 124.56 16.581 37.067 
124.56 16.581 38.1781 124.56 16.581 39.2892 124.56 16.581 40.4004 
124.56 16.581 41.5115 124.56 16.581 42.6226 124.56 16.581 43.7337 
124.56 16.581 44.8448 124.56 16.581 45.9559 125.671 16.581 35.9559 
125.671 16.581 37.067 125.671 16.581 38.1781 125.671 16.581 39.2892 
125.671 16.581 40.4004 125.671 16.581 41.5115 125.671 16.581 42.6226 
125.671 16.581 43.7337 125.671 16.581 44.8448 125.671 16.581 45.9559 
126.782 16.581 35.9559 126.782 16.581 37.067 126.782 16.581 38.1781 
126.782 16.581 39.2892 126.782 16.581 40.4004 126.782 16.581 41.5115 
126.782 16.581 42.6226 126.782 16.581 43.7337 126.782 16.581 44.8448 
126.782 16.581 45.9559 127.893 16.581 35.9559 127.893 16.581 37.067 
127.893 16.581 38.1781 127.893 16.581 39.2892 127.893 16.581 40.4004 
127.893 16.581 41.5115 127.893 16.581 42.6226 127.893 16.581 43.7337 
127.893 16.581 44.8448 127.893 16.581 45.9559 129.004 16.581 35.9559 
129.004 16.581 37.067 129.004 16.581 38.1781 129.004 16.581 39.2892 
129.004 16.581 40.4004 129.004 16.581 41.5115 129.004 16.581 42.6226 
129.004 16.581 43.7337 129.004 16.581 44.8448 129.004 16.581 45.9559 
130.116 16.581 35.9559 130.116 16.581 37.067 130.116 16.581 38.1781 
130.116 16.581 39.2892 130.116 16.581 40.4004 130.116 16.581 41.5115 
130.116 16.581 42.6226 130.116 16.581 43.7337 130.116 16.581 44.8448 
130.116 16.581 45.9559 131.227 16.581 35.9559 131.227 16.581 37.067 
131.227 16.581 38.1781 131.227 16.581 39.2892 131.227 16.581 40.4004 
131.227 16.581 41.5115 131.227 16.581 42.6226 131.227 16.581 43.7337 
131.227 16.581 44.8448 131.227 16.581 45.9559 132.338 16.581 35.9559 
132.338 16.581 37.067 132.338 16.581 38.1781 132.338 16.581 39.2892 
132.338 16.581 40.4004 132.338 16.581 41.5115 132.338 16.581 42.6226 
132.338 16.581 43.7337 132.338 16.581 44.8448 132.338 16.581 45.9559 
122.338 17.6921 35.9559 122.338 17.6921 37.067 122.338 17.6921 38.1781 
122.338 17.6921 39.2892 122.338 17.6921 40.4004 122.338 17.6921 41.5115 
122.338 17.6921 42.6226 122.338 17.6921 43.7337 122.338 17.6921 44.8448 
122.338 17.6921 45.9559 123.449 17.6921 35.9559 123.449 17.6921 37.067 
123.449 17.6921 38.1781 123.449 17.6921 39.2892 123.449 17.6921 40.4004 
123.449 17.6921 41.5115 123.449 17.6921 42.6226 123.449 17.6921 43.7337 
123.449 17.6921 44.8448 123.449 17.6921 45.9559 124.56 17.6921 35.9559 
124.56 17.6921 37.067 124.56 17.6921 38.1781 124.56 17.6921 39.2892 
124.56 17.6921 40.4004 124.56 17.6921 41.5115 124.56 17.6921 42.6226 
124.56 17.6921 43.7337 124.56 17.6921 44.8448 124.56 17.6921 45.9559 
125.671 17.6921 35.9559 125.671 17.6921 37.067 125.671 17.6921 38.1781 
125.671 17.6921 39.2892 125.671 17.6921 40.4004 125.671 17.6921 41.5115 
125.671 17.6921 42.6226 125.671 17.6921 43.7337 125.671 17.6921 44.8448 
125.671 17.6921 45.9559 126.782 17.6921 35.9559 126.782 17.6921 37.067 
126.782 17.6921 38.1781 126.782 17.6921 39.2892 126.782 17.6921 40.4004 
126.782 17.6921 41.5115 126.782 17.6921 42.6226 126.782 17.6921 43.7337 
126.782 17.6921 44.8448 126.782 17.6921 45.9559 127.893 17.6921 35.9559 
127.893 17.6921 37.067 127.893 17.6921 38.1781 127.893 17.6921 39.2892 
127.893 17.6921 40.4004 127.893 17.6921 41.5115 127.893 17.6921 42.6226 
127.893 17.6921 43.7337 127.893 17.6921 44.8448 127.893 17.6921 45.9559 
129.004 17.6921 35.9559 129.004 17.6921 37.067 129.004 17.6921 38.1781 
129.004 17.6921 39.2892 129.004 17.6921 40.4004 129.004 17.6921 41.5115 
129.004 17.6921 42.6226 129.004 17.6921 43.7337 129.004 17.6921 44.8448 
129.004 17.6921 45.9559 130.116 17.6921 35.9559 130.116 17.6921 37.067 
130.116 17.6921 38.1781 130.116 17.6921 39.2892 130.116 17.6921 40.4004 
130.116 17.6921 41.5115 130.116 17.6921 42.6226 130.116 17.6921 43.7337 
130.116 17.6921 44.8448 130.116 17.6921 45.9559 131.227 17.6921 35.9559 
131.227 17.6921 37.067 131.227 17.6921 38.1781 131.227 17.6921 39.2892 
131.227 17.6921 40.4004 131.227 17.6921 41.5115 131.227 17.6921 42.6226 
131.227 17.6921 43.7337 131.227 17.6921 44.8448 131.227 17.6921 45.9559 
132.338 17.6921 35.9559 132.338 17.6921 37.067 132.338 17.6921 38.1781 
132.338 17.6921 39.2892 132.338 17.6921 40.4004 132.338 17.6921 41.5115 
132.338 17.6921 42.6226 132.338 17.6921 43.7337 132.338 17.6921 44.8448 
132.338 17.6921 45.9559 122.338 18.8032 35.9559 122.338 18.8032 37.067 
122.338 18.8032 38.1781 122.338 18.8032 39.2892 122.338 18.8032 40.4004 
122.338 18.8032 41.5115 122.338 18.8032 42.6226 122.338 18.8032 43.7337 
122.338 18.8032 44.8448 122.338 18.8032 45.9559 123.449 18.8032 35.9559 
123.449 18.8032 37.067 123.449 18.8032 38.1781 123.449 18.8032 39.2892 
[...]
POINT_DATA 1000
SCALARS scalars float
LOOKUP_TABLE default
0.0245079 0.0555469 0.0550417 0.0532506 0.0512 0.0487961 0.0144951 0.267718 0.0115916 
0.00971441 0.0226065 0.0215325 0.0537686 0.0181909 0.0168445 0.0148348 0.013299 0.0117043 
0.041539 0.0088784 0.0561186 0.0202718 0.0519507 0.0176944 0.0156309 0.0137137 0.0121203 
0.0420557 0.0401145 0.0384597 0.0210117 0.0193255 0.0174902 0.0488309 0.0467002 0.0125289 
0.0109509 0.0406321 0.00785357 0.00633516 0.0197437 0.0177681 0.0161571 0.013937 0.0132526 
0.0116072 0.0413707 0.0392385 0.00705154 0.0355124 0.114319 0.0165686 0.0149507 0.0133521 
0.0435847 0.0419329 0.0399732 0.0381121 0.0359942 0.00453174 0.0500249 0.0153642 0.0140789 
0.150492 0.00896069 0.00922242 0.0383582 0.00604872 0.0346754 0.0331278 0.0485435 0.0141753 
0.0129244 0.0113454 0.00980106 0.00795642 0.0372356 0.0351563 0.00382954 0.00238814 0.0145829 
0.0133139 0.0438321 0.0102057 0.0410994 0.00684967 0.0424518 0.00149662 0.032327 0.0305624 
0.0136717 0.0402242 0.0288761 0.00908686 0.00725156 0.0364007 0.00429818 0.00285895 0.0308937 
0.000360762 0.0263859 0.0247245 0.0230697 0.0211292 0.22857 0.0510905 0.0491119 0.0150028 
0.0130943 0.011859 0.134883 0.0234766 0.0556373 0.0198211 0.0518255 0.0502088 0.0478564 
0.013819 0.0122641 0.0421295 0.0239058 0.0211713 0.0203078 0.0396729 0.0492902 0.0488283 
0.0464473 0.0442967 0.0109023 0.00930651 0.0568447 0.0207129 0.0528329 0.049774 0.0488907 
0.0146325 0.012763 0.0431831 0.0411149 0.0393851 0.0550831 0.0194956 0.0513545 0.0493893 
0.199225 0.0134738 0.0411329 0.0411623 0.00891284 0.0111682 0.0202072 0.0519954 0.0498939 
0.0151253 0.0460224 0.0120292 0.0108092 0.0547802 0.0384011 0.0367322 0.019185 0.0496423 
0.0482221 0.0142807 0.0443847 0.0424287 0.00972255 0.0390263 0.00646393 0.0354647 0.0508844 
0.0149984 0.0470138 0.047648 0.0113117 0.0101088 0.00861878 0.0068262 0.0359172 0.00458856 
0.016331 0.0452196 0.0456123 0.0116906 0.0418519 0.00904121 0.0380712 0.0361769 0.0346621 
0.0329916 0.0151584 0.0511733 0.0460995 0.0420882 0.253013 0.00760837 0 0.0348633 
0.0033077 0.00191172 0.0276051 0.0627797 0.0590522 0.0571337 0.0211701 0.0195133 0.183597 
0.0164088 0.0123981 0.0109536 0.061813 0.0250216 0.0233005 0.0557625 0.0536804 0.0518911 
0.0171082 0.0159338 0.0140262 0.0124952 0.025489 0.0583132 0.0222306 0.0206507 0.0522134 
0.017505 0.0155745 0.0464213 0.0448143 0.00870997 0.0574562 0.0566149 0.0239276 0.0529222 
0.0175931 0.0488514 0.014821 0.0450786 0.0429269 0.0103123 0.0230227 0.0553482 0.0534103 
0.0514753 0.0493633 0.0148426 0.0133755 0.0118734 0.0418657 0.00912063 0.0556262 0.0202679 
0.0517393 0.0168277 0.0481118 0.0462423 0.0125827 0.0428066 0.00929251 0.00782959 0.0537593 
0.0187695 0.0169687 0.0990101 0.0144766 0.0619499 0.0428948 0.00943884 0.00553324 0.00680168 
0.01948 0.0508005 0.0160749 0.0148679 0.0501776 0.0433199 0.0414848 0.0399243 0.0381463 
0.0361569 0.0179952 0.0167796 0.0474928 0.0456278 0.0119062 0.0419617 0.0503384 0.0386241 
0.0372887 0.00507547 0.0168607 0.0480786 0.0775672 0.0123219 0.0108471 0.00936042 0.0388532 
0.0370977 0.035614 0.060285 0.0651131 0.0274533 0.061191 0.0590427 0.0188496 0.0214549 
0.0534637 0.0180656 0.0494634 0.0253931 0.0312809 0.0265463 0.0595072 0.0234023 0.0521536 
0.0537289 0.018457 0.0500688 0.048291 0.168698 0.0619462 0.0599856 0.0581812 0.0222279 
0.0350826 0.0188175 0.0507221 0.0661528 0.0469228 0.044841 0.0604794 0.0586615 0.0226308 
0.0546812 0.114833 0.0510356 0.0491997 0.046476 0.0455569 0.0120641 0.187548 0.0578618 
0.0553672 0.0206959 0.0180792 0.0165988 0.047869 0.176571 0.0123503 0.0422047 0.05752 
0.0558428 0.0539433 0.0187545 0.17198 0.0481206 0.0139607 0.0446931 0.0110335 0.00991927 
0.0222176 0.0206796 0.0188401 0.0504438 0.0161433 0.0453826 0.0451614 0.076125 0.0406759 
0.00757356 0.0200018 0.0530419 0.0511606 0.0494004 0.261615 0.013249 0.0438312 0.0071948 
0.00925634 0.00785039 0.019601 0.0180806 0.144539 0.0479272 0.0461075 0.044321 0.0422929 
0.00930966 0.0390178 0.175669 0.0518571 0.044581 0.0533801 0.0139867 0.0444812 0.0114377 
0.0100064 0.0394995 0.037781 0.00550593 0.0307821 0.0644438 0.0276049 0.0610637 0.0242249 
0.022694 0.0214665 0.0196547 0.0181889 0.0166902 0.0295308 0.181124 0.0268521 0.0243565 
0.0216599 0.0556503 0.0203254 0.0519231 0.0170407 0.0482674 0.0661391 0.0250746 0.0605945 
0.0237256 0.0222063 0.0204091 0.0189035 0.0504866 0.186624 0.0469127 0.0622391 0.162874 
0.0586575 0.0225995 0.0207754 0.0189406 0.0177898 0.0491103 0.172955 0.0133984 0.0252696 
0.0244919 0.0229736 0.0553792 0.0532965 0.0516923 0.0827454 0.0477752 0.046051 0.0445031 
0.0595832 0.0577083 0.0212947 0.0203616 0.0518836 0.0503511 0.0482963 0.0467657 0.0118961 
0.0432173 0.0581675 0.0219025 0.0203972 0.0930562 0.0503793 0.0162873 0.0137305 0.0451545 
0.0436719 0.0419342 0.0565516 0.0549173 0.0192781 0.0178005 0.0494499 0.0476378 0.045884 
0.0123363 0.0106013 0.040434 0.0551424 0.0178758 0.0181544 0.0170262 0.0481168 0.0463489 
0.0445762 0.0113136 0.0408867 0.00817916 0.0539891 0.0519604 0.0503688 0.166936 0.0145125 
0.0447998 0.0113174 0.0402708 0.0398831 0.0382003 0.0317128 0.0303548 0.0644728 0.0625997 
0.0607611 0.059205 0.0569971 0.0551971 0.0570862 0.0185405 0.0301143 0.0649147 0.0278314 
0.0206655 0.0245364 0.0230309 0.0218449 0.0282326 0.0520135 0.0502175 0.0296985 0.0637046 
0.0263921 0.0597428 0.0233908 0.0218646 0.0204352 0.0189751 0.020176 0.0492814 0.028583 
0.062037 0.0602327 0.0237639 0.0565551 0.0548135 0.0208281 0.0481511 0.130272 0.0471036 
0.0266913 0.0608588 0.0241223 0.0572192 0.190413 0.0200168 0.0185383 0.0171027 0.0153722 
0.0139527 0.0261361 0.0570997 0.0235102 0.0218435 0.0538222 0.0186052 0.0502436 0.0160558 
0.11506 0.0449975 0.025159 0.0233585 0.0218917 0.0204271 0.0524499 0.0175292 0.0514832 
0.0146805 0.01359 0.011886 0.0240421 0.0567449 0.0547301 0.0529214 0.0514105 0.15931 
0.0150429 0.0458801 0.04502 0.0424647 0.0226046 0.0553954 0.0196954 0.0182544 0.0498748 
0.048068 0.014325 0.0449097 0.0431478 0.0413197 0.0218252 0.0200297 0.0186678 0.0175162 
0.0160884 0.014693 0.0452947 0.0435955 0.0105556 0.0402454 0.0697529 0.0317654 0.0662903 
0.0288152 0.201972 0.0607711 0.0242523 0.0568257 0.055422 0.0536314 0.0685305 0.0291601 
0.0646997 0.0276778 0.0259242 0.0593862 0.0233384 0.0215013 0.020415 0.0524353 0.0671528 
0.0653101 0.0277565 0.0262774 0.0596936 0.0236578 0.0560994 0.0545297 0.0527702 0.0510102 
0.0295884 0.0286869 0.0621425 0.0256107 0.0591509 0.0222619 0.0548657 0.0530036 0.018281 
0.0165558 0.0284451 0.0611502 0.0605672 0.0562377 0.0377571 0.101069 0.0200607 0.0186414 
0.0499299 0.222797 0.0276393 0.0612182 0.0591873 0.0237903 0.055856 0.0542076 0.0521041 
0.0506191 0.0486347 0.014484 0.0260146 0.0248056 0.0236122 0.0222045 0.0543014 0.0525567 
0.0179482 0.0490776 0.262606 0.0134586 0.0251441 0.0236776 0.0225217 0.0547446 0.0530057 
0.018301 0.0495189 0.0219387 0.0463403 0.0123703 0.024351 0.0572483 0.021295 0.0533971 
0.0516853 0.00758977 0.0158766 0.233612 0.0128058 0.0452958 0.0232672 0.0554819 0.0200935 
0.0521207 0.0503938 0.0488491 0.047239 0.0455318 0.043924 0.0207862 0.0714034 0.0693916 
0.0676497 0.0298008 0.028705 0.0272079 0.177988 0.0587379 0.0569746 0.0554403 0.0700367 
0.0682563 0.0300585 0.0644959 0.0272625 0.0609385 0.0591676 0.0232785 0.0982541 0.0541354 
0.0686761 0.0304818 0.0290422 0.0631448 0.0261868 0.0247426 0.0580511 0.0560888 0.0204916 
0.0190899 0.0308192 0.0297205 0.0635668 0.0263831 0.0602437 0.0583118 0.0223158 0.0548159 
0.0532704 0.0513341 0.0660027 0.0286042 0.0273611 0.0257758 0.024323 0.0571648 0.059358 
0.0224466 0.0517635 0.0173516 0.0643836 0.0275042 0.0260823 0.0593458 0.0229396 0.0218505 
0.0201355 0.0521929 0.0507193 0.0160004 0.0200081 0.0261902 0.0596206 0.0236057 0.0218802 
0.0544183 0.0163662 0.0177212 0.148666 0.0149894 0.0264641 0.0250419 0.0239484 0.0203615 
0.0211183 0.0530514 0.0510607 0.150621 0.047649 0.0465431 0.0256556 0.0586623 0.0225329 
0.0551715 0.053709 0.0520404 0.0503207 0.0156813 0.0462261 0.0130021 0.0246417 0.0573393 
0.0215147 0.0205278 0.0187512 0.179385 0.0164414 0.0473876 0.0457675 0.0123623 0.103376 
0.0338484 0.0327398 0.030805 0.0295533 0.0285092 0.0619747 0.060609 0.0586688 0.0229061 
0.0283637 0.0609847 0.0316622 0.0662384 0.0288475 0.0627639 0.0608296 0.0246387 0.057892 
0.055658 0.0700501 0.0317055 0.0666604 0.0288772 0.0629775 0.0612391 0.0396671 0.0232926 
0.143907 0.0204398 0.0320192 0.03061 0.0295067 0.0280672 0.0616917 0.0253192 0.0239869 
0.0225186 0.0211773 0.0531096 0.0312501 0.0643689 0.063806 0.0620655 0.0256605 0.0239564 
0.0571407 0.156512 0.0198291 0.0185126 0.0661657 0.0284708 0.0273896 0.0607643 0.0590531 
0.0573414 0.0558609 0.0288896 0.0191553 0.017453 0.0288042 0.0629066 0.0685151 0.0596835 
0.0233606 0.0589237 0.0204638 0.0194733 0.0178003 0.049378 0.0635274 0.0266783 0.060102 
0.0239087 0.0564792 0.0208458 0.0194853 0.0513407 0.0507742 0.0467134 0.0227931 0.0602893 
0.0588083 0.0568955 0.0502249 0.05353 0.051854 0.0171285 0.0116779 0.00573201 0.0256628 
0.100522 0.0575337 0.021519 0.0202998 0.0188258 0.0178078 0.0489765 0.0473589 0.0457438 
0.0365888 0.0348731 0.0338359 0.032503 0.0670827 0.0294395 0.063593 0.0622019 0.0255994 
0.0956812 0.110576 0.034184 0.0331455 0.0311484 0.0660167 0.0283497 0.0270131 0.0609489 
0.0242684 0.0573366 0.0342217 0.0331264 0.0678873 0.0303955 0.0290238 0.027653 0.0610783 
0.0537771 0.0232343 0.0560751 0.0701996 0.031798 0.0307163 0.0649517 0.0276687 0.0266134 
0.0249387 0.0581891 0.117391 0.0495658 0.0321055 0.0670189 0.0293675 0.0283119 0.0621577 
0.0252651 0.0587847 0.0231011 0.021526 0.0201856 0.0674039 0.0300614 0.0286374 0.0623416 
0.0259054 0.024563 0.0228718 0.110507 0.0204296 0.0525765 0.0303275 0.0286452 0.0275879 
0.0611629 0.0244411 0.0645265 0.0560524 0.0546282 0.0526008 0.0182111 0.0293181 0.0276083 
0.0614087 0.0248723 0.0264408 0.0566899 0.0208583 0.0203394 0.0185984 0.0169096 0.0282809 
0.0591951 0.0252359 0.0191917 0.0228659 0.0552388 0.0198581 0.0519473 0.0171783 0.0162675 
0.0624213 0.0258751 0.024186 0.0578427 0.0215234 0.0203626 0.0526345 0.0507284 0.016263 
0.0464894 
